LAMMPS data file via write_data, version 30 Jul 2021, timestep = 0

3600 atoms
1 atom types

0 43.5151852805432 xlo xhi
0 25.123503935558 ylo yhi
-0.003692385911578883 34.87622599523417 zlo zhi

Masses

1 55.8

Atoms # atomic

1 1 0 2.512350393555803 0 0 0 0
2 1 0.7252530880090527 1.2561751967779016 2.0513255064307407 0 0 0
3 1 0.7252530880090527 3.768525590333705 2.0513255064307407 0 0 0
4 1 0 0 0 0 0 0
5 1 2.175759264027158 1.2561751967779016 0 0 0 0
10 1 2.175759264027158 3.768525590333705 0 0 0 0
35 1 1.4505061760181055 0 4.1026510128614815 0 0 0
44 1 1.4505061760181055 2.512350393555803 4.1026510128614815 0 0 0
45 1 2.901012352036211 2.512350393555803 2.0513255064307407 0 0 0
46 1 3.6262654400452634 1.2561751967779016 4.102651012861481 0 0 0
47 1 3.6262654400452634 3.768525590333705 4.102651012861481 0 0 0
48 1 2.901012352036211 0 2.0513255064307407 0 0 0
49 1 4.351518528054316 0 0 0 0 0
50 1 5.076771616063369 1.2561751967779016 2.0513255064307403 0 0 0
64 1 5.076771616063369 3.768525590333705 2.0513255064307403 0 0 0
66 1 4.351518528054316 2.512350393555803 0 0 0 0
67 1 6.527277792081474 1.2561751967779016 -4.440892098500626e-16 0 0 0
68 1 6.527277792081474 3.7685255903337045 0 0 0 0
157 1 5.802024704072422 2.512350393555803 4.1026510128614815 0 0 0
160 1 5.802024704072422 0 4.1026510128614815 0 0 0
161 1 7.252530880090528 0 2.0513255064307407 0 0 0
186 1 7.252530880090528 2.512350393555803 2.0513255064307407 0 0 0
162 1 7.977783968099581 1.2561751967779016 4.1026510128614815 0 0 0
184 1 7.977783968099581 3.768525590333705 4.1026510128614815 0 0 0
187 1 8.703037056108633 2.5123503935558027 8.881784197001252e-16 0 0 0
188 1 9.428290144117685 1.2561751967779016 2.051325506430741 0 0 0
189 1 9.428290144117685 3.7685255903337045 2.0513255064307416 0 0 0
190 1 8.703037056108633 0 0 0 0 0
191 1 10.878796320135791 1.2561751967779013 8.881784197001252e-16 0 0 0
220 1 10.878796320135791 3.768525590333705 0 0 0 0
318 1 10.153543232126738 0 4.102651012861481 0 0 0
345 1 10.153543232126738 2.512350393555803 4.102651012861481 0 0 0
346 1 11.604049408144844 2.5123503935558027 2.0513255064307403 0 0 0
349 1 11.604049408144844 0 2.0513255064307394 0 0 0
347 1 12.329302496153897 1.2561751967779016 4.102651012861481 0 0 0
348 1 12.329302496153897 3.7685255903337045 4.102651012861481 0 0 0
350 1 13.054555584162948 0 0 0 0 0
351 1 13.779808672172003 1.2561751967779013 2.0513255064307403 0 0 0
382 1 13.779808672172003 3.768525590333705 2.0513255064307394 0 0 0
384 1 13.054555584162948 2.512350393555803 -8.881784197001252e-16 0 0 0
385 1 15.230314848190108 1.2561751967779018 0 0 0 0
386 1 15.230314848190108 3.7685255903337045 -1.7763568394002505e-15 0 0 0
509 1 14.505061760181055 2.5123503935558027 4.102651012861482 0 0 0
512 1 14.505061760181055 0 4.1026510128614815 0 0 0
513 1 15.95556793619916 0 2.051325506430742 0 0 0
514 1 16.680821024208214 1.2561751967779013 4.1026510128614815 0 0 0
542 1 16.680821024208214 3.768525590333705 4.102651012861481 0 0 0
544 1 15.95556793619916 2.512350393555803 2.051325506430741 0 0 0
545 1 17.406074112217265 2.512350393555803 0 0 0 0
546 1 18.13132720022632 1.2561751967779018 2.051325506430741 0 0 0
547 1 18.13132720022632 3.7685255903337045 2.0513255064307394 0 0 0
548 1 17.406074112217265 0 0 0 0 0
549 1 19.581833376244425 1.2561751967779013 0 0 0 0
580 1 19.581833376244425 3.7685255903337045 1.7763568394002505e-15 0 0 0
678 1 18.85658028823537 0 4.102651012861483 0 0 0
705 1 18.85658028823537 2.512350393555803 4.102651012861482 0 0 0
706 1 20.307086464253477 2.512350393555803 2.051325506430741 0 0 0
707 1 21.032339552262528 1.2561751967779018 4.102651012861481 0 0 0
708 1 21.032339552262528 3.7685255903337045 4.102651012861479 0 0 0
709 1 20.307086464253477 0 2.051325506430741 0 0 0
710 1 21.757592640271582 0 0 0 0 0
711 1 22.482845728280633 1.2561751967779013 2.0513255064307394 0 0 0
742 1 22.482845728280633 3.7685255903337045 2.051325506430741 0 0 0
744 1 21.757592640271582 2.5123503935558027 1.7763568394002505e-15 0 0 0
869 1 23.208098816289688 2.512350393555803 4.102651012861479 0 0 0
872 1 23.208098816289688 0 4.102651012861479 0 0 0
745 1 23.93335190429874 1.2561751967779013 0 0 0 0
746 1 23.93335190429874 3.768525590333705 0 0 0 0
873 1 24.658604992307794 0 2.0513255064307376 0 0 0
874 1 25.383858080316845 1.2561751967779013 4.102651012861481 0 0 0
902 1 25.383858080316845 3.7685255903337045 4.102651012861482 0 0 0
904 1 24.658604992307794 2.5123503935558027 2.0513255064307394 0 0 0
905 1 26.109111168325896 2.5123503935558036 -1.7763568394002505e-15 0 0 0
906 1 26.83436425633495 1.2561751967779013 2.051325506430741 0 0 0
907 1 26.83436425633495 3.768525590333705 2.051325506430741 0 0 0
908 1 26.109111168325896 0 0 0 0 0
1038 1 27.559617344344005 0 4.102651012861479 0 0 0
1065 1 27.559617344344005 2.5123503935558027 4.102651012861481 0 0 0
909 1 28.284870432353056 1.2561751967779022 1.7763568394002505e-15 0 0 0
940 1 28.284870432353056 3.768525590333705 -1.7763568394002505e-15 0 0 0
1066 1 29.010123520362107 2.5123503935558036 2.0513255064307394 0 0 0
1067 1 29.735376608371162 1.2561751967779013 4.102651012861482 0 0 0
1068 1 29.735376608371162 3.768525590333705 4.102651012861482 0 0 0
1069 1 29.010123520362107 0 2.051325506430741 0 0 0
1070 1 30.460629696380217 0 0 0 0 0
1071 1 31.185882784389268 1.2561751967779022 2.051325506430743 0 0 0
1102 1 31.185882784389268 3.768525590333705 2.0513255064307394 0 0 0
1104 1 30.460629696380217 2.5123503935558036 0 0 0 0
1105 1 32.63638896040737 1.2561751967779013 0 0 0 0
1106 1 32.63638896040737 3.768525590333705 0 0 0 0
1229 1 31.91113587239832 2.5123503935558036 4.102651012861482 0 0 0
1232 1 31.91113587239832 0 4.102651012861484 0 0 0
1233 1 33.36164204841643 0 2.051325506430743 0 0 0
1234 1 34.08689513642548 1.2561751967779022 4.102651012861482 0 0 0
1262 1 34.08689513642548 3.768525590333705 4.102651012861479 0 0 0
1264 1 33.36164204841643 2.5123503935558036 2.051325506430743 0 0 0
1265 1 34.81214822443453 2.5123503935558027 3.552713678800501e-15 0 0 0
1266 1 35.537401312443585 1.2561751967779013 2.0513255064307394 0 0 0
1267 1 35.537401312443585 3.768525590333705 2.0513255064307394 0 0 0
1268 1 34.81214822443453 0 0 0 0 0
1269 1 36.98790748846169 1.2561751967779013 0 0 0 0
1300 1 36.98790748846169 3.768525590333704 0 0 0 0
1398 1 36.26265440045264 0 4.102651012861482 0 0 0
1425 1 36.26265440045264 2.5123503935558036 4.102651012861482 0 0 0
1426 1 37.71316057647074 2.5123503935558027 2.051325506430743 0 0 0
1427 1 38.438413664479796 1.2561751967779013 4.102651012861482 0 0 0
1428 1 38.438413664479796 3.768525590333705 4.102651012861482 0 0 0
1429 1 37.71316057647074 0 2.0513255064307394 0 0 0
1430 1 39.16366675248885 0 0 0 0 0
1464 1 39.16366675248885 2.5123503935558027 0 0 0 0
1431 1 39.888919840497906 1.2561751967779013 2.051325506430743 0 0 0
1462 1 39.888919840497906 3.768525590333704 2.051325506430743 0 0 0
1465 1 41.33942601651601 1.2561751967779013 0 0 0 0
1466 1 41.33942601651601 3.768525590333704 0 0 0 0
1589 1 40.61417292850695 2.5123503935558027 4.102651012861486 0 0 0
1592 1 40.61417292850695 0 4.102651012861482 0 0 0
1593 1 42.06467910452506 0 2.051325506430743 0 0 0
1594 1 42.78993219253411 1.2561751967779013 4.102651012861482 0 0 0
1622 1 42.78993219253411 3.768525590333704 4.102651012861482 0 0 0
1624 1 42.06467910452506 2.5123503935558027 2.051325506430743 0 0 0
6 1 0 7.537051180667409 0 0 0 0
7 1 0.7252530880090529 6.280875983889508 2.0513255064307403 0 0 0
9 1 0 5.024700787111606 0 0 0 0
11 1 2.175759264027158 6.280875983889508 6.661338147750939e-16 0 0 0
41 1 1.4505061760181057 5.024700787111606 4.102651012861481 0 0 0
58 1 1.4505061760181055 7.53705118066741 4.1026510128614815 0 0 0
59 1 2.901012352036211 7.537051180667409 2.0513255064307407 0 0 0
60 1 3.6262654400452634 6.280875983889508 4.102651012861481 0 0 0
62 1 2.901012352036211 5.024700787111606 2.0513255064307407 0 0 0
63 1 4.351518528054316 5.024700787111606 4.440892098500626e-16 0 0 0
65 1 5.076771616063369 6.280875983889508 2.0513255064307407 0 0 0
84 1 4.351518528054316 7.53705118066741 0 0 0 0
85 1 6.527277792081474 6.280875983889508 -4.440892098500626e-16 0 0 0
179 1 5.802024704072422 7.537051180667409 4.1026510128614815 0 0 0
182 1 5.802024704072422 5.024700787111606 4.1026510128614815 0 0 0
183 1 7.252530880090527 5.024700787111606 2.051325506430741 0 0 0
215 1 7.252530880090528 7.53705118066741 2.0513255064307407 0 0 0
185 1 7.977783968099581 6.280875983889508 4.102651012861482 0 0 0
216 1 8.703037056108633 7.537051180667409 0 0 0 0
217 1 9.428290144117685 6.280875983889508 2.051325506430741 0 0 0
219 1 8.703037056108633 5.024700787111606 0 0 0 0
221 1 10.878796320135791 6.280875983889508 0 0 0 0
342 1 10.153543232126738 5.024700787111606 4.102651012861481 0 0 0
376 1 10.153543232126738 7.53705118066741 4.102651012861481 0 0 0
377 1 11.604049408144844 7.537051180667409 2.0513255064307394 0 0 0
380 1 11.604049408144844 5.024700787111606 2.0513255064307394 0 0 0
378 1 12.329302496153897 6.280875983889508 4.102651012861481 0 0 0
381 1 13.054555584162948 5.024700787111606 -1.7763568394002505e-15 0 0 0
383 1 13.779808672172003 6.280875983889508 2.0513255064307394 0 0 0
412 1 13.054555584162948 7.537051180667409 0 0 0 0
413 1 15.230314848190108 6.280875983889508 0 0 0 0
537 1 14.505061760181055 7.537051180667409 4.1026510128614815 0 0 0
540 1 14.505061760181055 5.024700787111606 4.1026510128614815 0 0 0
541 1 15.95556793619916 5.024700787111606 2.0513255064307403 0 0 0
543 1 16.680821024208214 6.280875983889508 4.102651012861481 0 0 0
575 1 15.95556793619916 7.537051180667409 2.051325506430742 0 0 0
576 1 17.406074112217265 7.53705118066741 1.7763568394002505e-15 0 0 0
577 1 18.13132720022632 6.280875983889508 2.051325506430741 0 0 0
579 1 17.406074112217265 5.024700787111605 1.7763568394002505e-15 0 0 0
581 1 19.581833376244425 6.2808759838895085 0 0 0 0
702 1 18.85658028823537 5.024700787111606 4.1026510128614815 0 0 0
736 1 18.85658028823537 7.537051180667409 4.102651012861483 0 0 0
737 1 20.307086464253477 7.53705118066741 2.051325506430743 0 0 0
738 1 21.032339552262528 6.280875983889508 4.102651012861481 0 0 0
740 1 20.307086464253477 5.024700787111605 2.051325506430743 0 0 0
741 1 21.757592640271582 5.024700787111607 1.7763568394002505e-15 0 0 0
743 1 22.482845728280633 6.2808759838895085 2.0513255064307394 0 0 0
772 1 21.757592640271582 7.53705118066741 0 0 0 0
897 1 23.208098816289688 7.53705118066741 4.102651012861481 0 0 0
900 1 23.208098816289688 5.024700787111605 4.102651012861481 0 0 0
773 1 23.93335190429874 6.2808759838895085 -1.7763568394002505e-15 0 0 0
901 1 24.658604992307794 5.024700787111607 2.0513255064307394 0 0 0
903 1 25.383858080316845 6.2808759838895085 4.102651012861481 0 0 0
935 1 24.658604992307794 7.53705118066741 2.0513255064307376 0 0 0
936 1 26.109111168325896 7.53705118066741 -1.7763568394002505e-15 0 0 0
937 1 26.83436425633495 6.2808759838895085 2.0513255064307394 0 0 0
939 1 26.109111168325896 5.024700787111606 -1.7763568394002505e-15 0 0 0
1062 1 27.559617344344005 5.024700787111607 4.102651012861481 0 0 0
1096 1 27.559617344344005 7.53705118066741 4.102651012861479 0 0 0
941 1 28.284870432353056 6.280875983889508 -1.7763568394002505e-15 0 0 0
1097 1 29.010123520362107 7.53705118066741 2.0513255064307394 0 0 0
1098 1 29.735376608371162 6.2808759838895085 4.102651012861481 0 0 0
1100 1 29.010123520362107 5.024700787111606 2.0513255064307394 0 0 0
1101 1 30.460629696380217 5.024700787111606 -1.7763568394002505e-15 0 0 0
1103 1 31.185882784389268 6.280875983889508 2.0513255064307394 0 0 0
1132 1 30.460629696380217 7.537051180667409 -3.552713678800501e-15 0 0 0
1133 1 32.63638896040737 6.280875983889508 -1.7763568394002505e-15 0 0 0
1257 1 31.91113587239832 7.53705118066741 4.102651012861482 0 0 0
1260 1 31.91113587239832 5.024700787111606 4.102651012861482 0 0 0
1261 1 33.36164204841643 5.024700787111606 2.051325506430741 0 0 0
1263 1 34.08689513642548 6.280875983889508 4.102651012861479 0 0 0
1295 1 33.36164204841643 7.537051180667409 2.0513255064307394 0 0 0
1296 1 34.81214822443453 7.537051180667409 3.552713678800501e-15 0 0 0
1297 1 35.537401312443585 6.280875983889508 2.0513255064307376 0 0 0
1299 1 34.81214822443453 5.024700787111606 0 0 0 0
1301 1 36.98790748846169 6.280875983889508 0 0 0 0
1422 1 36.26265440045264 5.024700787111606 4.102651012861481 0 0 0
1456 1 36.26265440045264 7.537051180667409 4.102651012861479 0 0 0
1457 1 37.71316057647074 7.537051180667409 2.051325506430743 0 0 0
1458 1 38.438413664479796 6.280875983889508 4.102651012861481 0 0 0
1460 1 37.71316057647074 5.024700787111606 2.0513255064307394 0 0 0
1461 1 39.16366675248885 5.024700787111605 0 0 0 0
1492 1 39.16366675248885 7.537051180667409 3.552713678800501e-15 0 0 0
1463 1 39.888919840497906 6.280875983889508 2.051325506430743 0 0 0
1493 1 41.33942601651601 6.280875983889507 3.552713678800501e-15 0 0 0
1617 1 40.61417292850695 7.537051180667409 4.102651012861486 0 0 0
1620 1 40.61417292850695 5.024700787111606 4.102651012861482 0 0 0
1621 1 42.064679104525055 5.024700787111605 2.051325506430743 0 0 0
1623 1 42.78993219253411 6.280875983889508 4.102651012861482 0 0 0
1650 1 42.064679104525055 7.537051180667409 2.0513255064307465 0 0 0
8 1 0.7252530880090526 8.793226377445311 2.051325506430741 0 0 0
13 1 0.7252530880090526 11.305576771001114 2.051325506430741 0 0 0
15 1 0 10.049401574223213 0 0 0 0
16 1 2.1757592640271586 8.793226377445311 -6.661338147750939e-16 0 0 0
17 1 2.1757592640271586 11.305576771001114 -2.220446049250313e-16 0 0 0
55 1 1.4505061760181053 10.049401574223213 4.102651012861482 0 0 0
61 1 3.6262654400452634 8.793226377445311 4.1026510128614815 0 0 0
78 1 3.6262654400452634 11.305576771001114 4.102651012861481 0 0 0
80 1 2.901012352036211 10.049401574223213 2.0513255064307407 0 0 0
81 1 4.351518528054317 10.049401574223213 -8.881784197001252e-16 0 0 0
82 1 5.076771616063369 8.793226377445311 2.0513255064307394 0 0 0
83 1 5.076771616063369 11.305576771001114 2.05132550643074 0 0 0
86 1 6.527277792081475 8.793226377445311 -8.881784197001252e-16 0 0 0
103 1 6.527277792081474 11.305576771001114 0 0 0 0
211 1 5.802024704072422 10.049401574223213 4.1026510128614815 0 0 0
212 1 7.252530880090528 10.049401574223213 2.05132550643074 0 0 0
213 1 7.977783968099581 8.793226377445311 4.102651012861481 0 0 0
214 1 7.977783968099581 11.305576771001114 4.1026510128614815 0 0 0
218 1 9.428290144117685 8.793226377445311 2.0513255064307407 0 0 0
241 1 9.428290144117685 11.305576771001114 2.0513255064307416 0 0 0
243 1 8.703037056108633 10.049401574223213 8.881784197001252e-16 0 0 0
244 1 10.878796320135791 8.793226377445311 1.7763568394002505e-15 0 0 0
245 1 10.878796320135791 11.305576771001114 1.7763568394002505e-15 0 0 0
373 1 10.153543232126738 10.049401574223213 4.102651012861479 0 0 0
408 1 11.604049408144842 10.049401574223213 2.0513255064307403 0 0 0
379 1 12.329302496153897 8.793226377445311 4.102651012861481 0 0 0
406 1 12.329302496153897 11.305576771001114 4.102651012861481 0 0 0
409 1 13.054555584162948 10.049401574223213 0 0 0 0
410 1 13.779808672172003 8.793226377445311 2.051325506430741 0 0 0
411 1 13.779808672172003 11.305576771001114 2.051325506430741 0 0 0
414 1 15.230314848190108 8.793226377445311 0 0 0 0
433 1 15.230314848190108 11.305576771001114 -8.881784197001252e-16 0 0 0
571 1 14.505061760181054 10.049401574223213 4.102651012861482 0 0 0
572 1 15.95556793619916 10.049401574223213 2.051325506430742 0 0 0
573 1 16.680821024208214 8.793226377445311 4.102651012861482 0 0 0
574 1 16.680821024208214 11.305576771001114 4.102651012861482 0 0 0
578 1 18.13132720022632 8.793226377445311 2.051325506430741 0 0 0
601 1 18.13132720022632 11.305576771001114 2.0513255064307403 0 0 0
603 1 17.406074112217265 10.049401574223213 0 0 0 0
604 1 19.581833376244425 8.793226377445311 0 0 0 0
605 1 19.581833376244425 11.305576771001114 0 0 0 0
733 1 18.85658028823537 10.049401574223213 4.102651012861483 0 0 0
739 1 21.032339552262528 8.793226377445311 4.102651012861481 0 0 0
766 1 21.032339552262528 11.305576771001114 4.10265101286148 0 0 0
768 1 20.307086464253477 10.049401574223213 2.051325506430741 0 0 0
769 1 21.757592640271582 10.049401574223213 1.7763568394002505e-15 0 0 0
770 1 22.482845728280633 8.793226377445311 2.0513255064307394 0 0 0
771 1 22.482845728280633 11.305576771001114 2.0513255064307394 0 0 0
931 1 23.208098816289688 10.049401574223213 4.102651012861479 0 0 0
774 1 23.93335190429874 8.793226377445311 -1.7763568394002505e-15 0 0 0
793 1 23.93335190429874 11.305576771001114 -1.7763568394002505e-15 0 0 0
932 1 24.658604992307794 10.049401574223213 2.0513255064307394 0 0 0
933 1 25.383858080316845 8.793226377445311 4.102651012861481 0 0 0
934 1 25.383858080316845 11.305576771001114 4.102651012861481 0 0 0
938 1 26.83436425633495 8.793226377445311 2.0513255064307394 0 0 0
961 1 26.83436425633495 11.305576771001114 2.0513255064307394 0 0 0
963 1 26.109111168325896 10.049401574223213 -3.552713678800501e-15 0 0 0
1093 1 27.559617344344005 10.049401574223213 4.102651012861481 0 0 0
964 1 28.284870432353056 8.793226377445311 -1.7763568394002505e-15 0 0 0
965 1 28.284870432353056 11.305576771001114 0 0 0 0
1099 1 29.735376608371162 8.793226377445311 4.102651012861481 0 0 0
1126 1 29.735376608371162 11.305576771001114 4.102651012861481 0 0 0
1128 1 29.010123520362107 10.049401574223213 2.0513255064307376 0 0 0
1129 1 30.460629696380217 10.049401574223213 0 0 0 0
1130 1 31.185882784389268 8.793226377445311 2.0513255064307394 0 0 0
1131 1 31.185882784389268 11.305576771001114 2.051325506430741 0 0 0
1134 1 32.63638896040737 8.793226377445311 0 0 0 0
1153 1 32.63638896040737 11.305576771001114 1.7763568394002505e-15 0 0 0
1291 1 31.91113587239832 10.049401574223213 4.102651012861481 0 0 0
1292 1 33.36164204841643 10.049401574223213 2.051325506430743 0 0 0
1293 1 34.08689513642548 8.793226377445311 4.102651012861479 0 0 0
1294 1 34.08689513642548 11.305576771001114 4.102651012861481 0 0 0
1298 1 35.537401312443585 8.793226377445311 2.0513255064307394 0 0 0
1321 1 35.537401312443585 11.305576771001114 2.051325506430741 0 0 0
1323 1 34.81214822443453 10.04940157422321 3.552713678800501e-15 0 0 0
1324 1 36.98790748846169 8.793226377445311 0 0 0 0
1325 1 36.98790748846169 11.305576771001114 0 0 0 0
1453 1 36.26265440045264 10.049401574223213 4.102651012861482 0 0 0
1459 1 38.438413664479796 8.793226377445311 4.102651012861482 0 0 0
1486 1 38.438413664479796 11.305576771001114 4.102651012861484 0 0 0
1488 1 37.71316057647074 10.04940157422321 2.051325506430743 0 0 0
1489 1 39.16366675248885 10.04940157422321 0 0 0 0
1490 1 39.888919840497906 8.793226377445311 2.051325506430743 0 0 0
1491 1 39.888919840497906 11.305576771001114 2.051325506430743 0 0 0
1494 1 41.33942601651601 8.793226377445311 3.552713678800501e-15 0 0 0
1513 1 41.33942601651601 11.305576771001114 0 0 0 0
1646 1 40.61417292850695 10.04940157422321 4.102651012861486 0 0 0
1647 1 42.06467910452506 10.04940157422321 2.051325506430743 0 0 0
1648 1 42.78993219253411 8.793226377445311 4.102651012861482 0 0 0
1649 1 42.78993219253411 11.305576771001114 4.102651012861482 0 0 0
12 1 0 12.561751967779015 0 0 0 0
14 1 0.7252530880090531 13.817927164556917 2.0513255064307394 0 0 0
19 1 0.7252530880090526 16.33027755811272 2.051325506430741 0 0 0
21 1 0 15.074102361334818 0 0 0 0
22 1 2.1757592640271577 13.817927164556917 1.5543122344752192e-15 0 0 0
23 1 2.1757592640271586 16.33027755811272 -2.220446049250313e-16 0 0 0
73 1 1.4505061760181057 15.07410236133482 4.102651012861481 0 0 0
76 1 1.4505061760181057 12.561751967779015 4.102651012861481 0 0 0
77 1 2.901012352036211 12.561751967779015 2.0513255064307407 0 0 0
79 1 3.626265440045264 13.817927164556917 4.102651012861479 0 0 0
96 1 3.6262654400452634 16.33027755811272 4.102651012861481 0 0 0
98 1 2.901012352036211 15.074102361334818 2.0513255064307407 0 0 0
99 1 4.351518528054316 15.07410236133482 1.3322676295501878e-15 0 0 0
100 1 5.076771616063368 13.817927164556917 2.0513255064307416 0 0 0
101 1 5.076771616063369 16.33027755811272 2.05132550643074 0 0 0
102 1 4.351518528054316 12.561751967779015 1.3322676295501878e-15 0 0 0
104 1 6.527277792081474 13.817927164556917 4.440892098500626e-16 0 0 0
115 1 6.527277792081474 16.33027755811272 -4.440892098500626e-16 0 0 0
208 1 5.802024704072422 12.561751967779015 4.1026510128614815 0 0 0
235 1 5.802024704072422 15.074102361334818 4.1026510128614815 0 0 0
236 1 7.252530880090527 15.07410236133482 2.051325506430742 0 0 0
239 1 7.252530880090527 12.561751967779015 2.051325506430742 0 0 0
237 1 7.97778396809958 13.817927164556917 4.102651012861483 0 0 0
238 1 7.977783968099581 16.33027755811272 4.1026510128614815 0 0 0
240 1 8.703037056108633 12.561751967779015 8.881784197001252e-16 0 0 0
242 1 9.428290144117685 13.817927164556917 2.051325506430742 0 0 0
257 1 9.428290144117685 16.33027755811272 2.051325506430741 0 0 0
259 1 8.703037056108633 15.07410236133482 0 0 0 0
260 1 10.878796320135791 13.817927164556917 0 0 0 0
261 1 10.878796320135791 16.33027755811272 8.881784197001252e-16 0 0 0
401 1 10.153543232126738 15.07410236133482 4.1026510128614815 0 0 0
404 1 10.153543232126738 12.561751967779015 4.1026510128614815 0 0 0
405 1 11.604049408144844 12.561751967779015 2.0513255064307403 0 0 0
428 1 11.604049408144844 15.07410236133482 2.0513255064307394 0 0 0
407 1 12.329302496153897 13.817927164556917 4.1026510128614815 0 0 0
426 1 12.329302496153897 16.33027755811272 4.102651012861481 0 0 0
429 1 13.05455558416295 15.074102361334818 -8.881784197001252e-16 0 0 0
430 1 13.779808672172003 13.817927164556917 2.0513255064307394 0 0 0
431 1 13.779808672172003 16.33027755811272 2.0513255064307403 0 0 0
432 1 13.054555584162948 12.561751967779015 -8.881784197001252e-16 0 0 0
434 1 15.230314848190108 13.817927164556917 0 0 0 0
445 1 15.230314848190108 16.33027755811272 -1.7763568394002505e-15 0 0 0
568 1 14.505061760181055 12.561751967779015 4.102651012861482 0 0 0
595 1 14.505061760181055 15.07410236133482 4.1026510128614815 0 0 0
596 1 15.955567936199161 15.074102361334818 2.051325506430741 0 0 0
597 1 16.680821024208214 13.817927164556917 4.102651012861481 0 0 0
598 1 16.680821024208214 16.33027755811272 4.1026510128614815 0 0 0
599 1 15.95556793619916 12.561751967779015 2.051325506430741 0 0 0
600 1 17.406074112217265 12.561751967779015 0 0 0 0
602 1 18.13132720022632 13.817927164556917 2.051325506430741 0 0 0
617 1 18.13132720022632 16.33027755811272 2.0513255064307394 0 0 0
619 1 17.406074112217265 15.074102361334818 0 0 0 0
620 1 19.581833376244425 13.817927164556917 -1.7763568394002505e-15 0 0 0
621 1 19.581833376244425 16.33027755811272 1.7763568394002505e-15 0 0 0
761 1 18.85658028823537 15.074102361334818 4.102651012861482 0 0 0
764 1 18.85658028823537 12.561751967779015 4.102651012861482 0 0 0
765 1 20.307086464253477 12.561751967779015 2.051325506430741 0 0 0
767 1 21.032339552262528 13.817927164556917 4.102651012861481 0 0 0
786 1 21.032339552262528 16.33027755811272 4.102651012861479 0 0 0
788 1 20.307086464253477 15.074102361334818 2.051325506430741 0 0 0
789 1 21.757592640271582 15.074102361334818 1.7763568394002505e-15 0 0 0
790 1 22.482845728280633 13.817927164556917 2.0513255064307376 0 0 0
791 1 22.482845728280633 16.33027755811272 2.051325506430741 0 0 0
792 1 21.757592640271582 12.561751967779015 0 0 0 0
928 1 23.208098816289688 12.561751967779015 4.102651012861479 0 0 0
955 1 23.208098816289688 15.074102361334818 4.102651012861479 0 0 0
794 1 23.93335190429874 13.817927164556917 0 0 0 0
805 1 23.93335190429874 16.33027755811272 0 0 0 0
956 1 24.658604992307794 15.074102361334818 2.0513255064307394 0 0 0
957 1 25.383858080316845 13.817927164556917 4.102651012861479 0 0 0
958 1 25.383858080316845 16.33027755811272 4.102651012861482 0 0 0
959 1 24.658604992307794 12.561751967779015 2.0513255064307376 0 0 0
960 1 26.109111168325896 12.561751967779015 0 0 0 0
962 1 26.83436425633495 13.817927164556917 2.051325506430741 0 0 0
977 1 26.83436425633495 16.33027755811272 2.051325506430741 0 0 0
979 1 26.109111168325896 15.074102361334818 0 0 0 0
1121 1 27.559617344344005 15.074102361334818 4.102651012861481 0 0 0
1124 1 27.559617344344005 12.561751967779015 4.102651012861479 0 0 0
980 1 28.284870432353056 13.817927164556917 1.7763568394002505e-15 0 0 0
981 1 28.284870432353056 16.33027755811272 0 0 0 0
1125 1 29.010123520362107 12.561751967779015 2.051325506430741 0 0 0
1127 1 29.735376608371162 13.817927164556917 4.102651012861482 0 0 0
1146 1 29.735376608371162 16.33027755811272 4.102651012861482 0 0 0
1148 1 29.010123520362107 15.074102361334818 2.051325506430741 0 0 0
1149 1 30.460629696380217 15.074102361334818 0 0 0 0
1150 1 31.185882784389268 13.817927164556917 2.051325506430743 0 0 0
1151 1 31.185882784389268 16.33027755811272 2.051325506430741 0 0 0
1152 1 30.460629696380217 12.561751967779015 0 0 0 0
1154 1 32.63638896040737 13.817927164556917 0 0 0 0
1165 1 32.63638896040737 16.33027755811272 1.7763568394002505e-15 0 0 0
1288 1 31.91113587239832 12.561751967779015 4.102651012861484 0 0 0
1315 1 31.91113587239832 15.074102361334818 4.102651012861484 0 0 0
1316 1 33.36164204841643 15.074102361334818 2.051325506430743 0 0 0
1317 1 34.08689513642548 13.817927164556917 4.102651012861482 0 0 0
1318 1 34.08689513642548 16.33027755811272 4.102651012861481 0 0 0
1319 1 33.36164204841643 12.561751967779015 2.051325506430743 0 0 0
1320 1 34.81214822443453 12.561751967779015 3.552713678800501e-15 0 0 0
1322 1 35.537401312443585 13.817927164556917 2.0513255064307394 0 0 0
1337 1 35.537401312443585 16.33027755811272 2.051325506430741 0 0 0
1339 1 34.81214822443453 15.07410236133482 3.552713678800501e-15 0 0 0
1340 1 36.98790748846169 13.817927164556918 0 0 0 0
1341 1 36.98790748846169 16.330277558112723 0 0 0 0
1481 1 36.26265440045264 15.074102361334818 4.102651012861482 0 0 0
1484 1 36.26265440045264 12.561751967779015 4.102651012861482 0 0 0
1485 1 37.71316057647074 12.561751967779015 2.051325506430743 0 0 0
1487 1 38.438413664479796 13.817927164556917 4.102651012861482 0 0 0
1506 1 38.438413664479796 16.33027755811272 4.102651012861484 0 0 0
1508 1 37.71316057647074 15.07410236133482 2.051325506430743 0 0 0
1509 1 39.16366675248885 15.074102361334822 0 0 0 0
1512 1 39.16366675248885 12.561751967779017 0 0 0 0
1510 1 39.888919840497906 13.817927164556918 2.051325506430743 0 0 0
1511 1 39.888919840497906 16.330277558112723 2.051325506430743 0 0 0
1514 1 41.33942601651601 13.81792716455692 0 0 0 0
1525 1 41.33942601651601 16.33027755811272 0 0 0 0
1643 1 40.61417292850695 12.561751967779015 4.102651012861486 0 0 0
1664 1 40.61417292850695 15.07410236133482 4.102651012861486 0 0 0
1665 1 42.06467910452506 15.074102361334822 2.051325506430743 0 0 0
1666 1 42.78993219253411 13.817927164556918 4.102651012861482 0 0 0
1667 1 42.78993219253411 16.330277558112723 4.102651012861482 0 0 0
1668 1 42.06467910452506 12.561751967779017 2.051325506430743 0 0 0
18 1 0 17.586452754890622 0 0 0 0
20 1 0.7252530880090526 18.842627951668526 2.051325506430742 0 0 0
27 1 0 20.098803148446425 0 0 0 0
28 1 2.1757592640271586 18.842627951668526 -1.1102230246251565e-15 0 0 0
91 1 1.4505061760181053 20.098803148446425 4.102651012861482 0 0 0
94 1 1.4505061760181053 17.586452754890622 4.102651012861482 0 0 0
95 1 2.901012352036211 17.586452754890622 2.0513255064307407 0 0 0
97 1 3.6262654400452634 18.842627951668526 4.102651012861482 0 0 0
110 1 2.901012352036211 20.098803148446425 2.0513255064307407 0 0 0
111 1 4.351518528054317 20.098803148446425 -4.440892098500626e-16 0 0 0
112 1 5.076771616063369 18.842627951668526 2.051325506430739 0 0 0
114 1 4.351518528054317 17.586452754890622 -1.3322676295501878e-15 0 0 0
116 1 6.527277792081475 18.842627951668522 -1.3322676295501878e-15 0 0 0
232 1 5.802024704072422 17.586452754890622 4.1026510128614815 0 0 0
251 1 5.802024704072422 20.098803148446425 4.1026510128614815 0 0 0
252 1 7.252530880090528 20.098803148446425 2.0513255064307403 0 0 0
255 1 7.252530880090528 17.586452754890622 2.0513255064307394 0 0 0
253 1 7.977783968099581 18.842627951668526 4.102651012861481 0 0 0
256 1 8.703037056108633 17.586452754890622 8.881784197001252e-16 0 0 0
258 1 9.428290144117685 18.842627951668522 2.0513255064307403 0 0 0
267 1 8.703037056108634 20.098803148446425 -1.7763568394002505e-15 0 0 0
268 1 10.878796320135791 18.842627951668522 0 0 0 0
421 1 10.153543232126738 20.098803148446425 4.10265101286148 0 0 0
424 1 10.153543232126738 17.586452754890622 4.102651012861479 0 0 0
425 1 11.604049408144844 17.586452754890622 2.0513255064307403 0 0 0
440 1 11.604049408144844 20.098803148446425 2.0513255064307376 0 0 0
427 1 12.329302496153897 18.842627951668522 4.10265101286148 0 0 0
441 1 13.054555584162948 20.098803148446425 8.881784197001252e-16 0 0 0
442 1 13.779808672172003 18.842627951668522 2.0513255064307394 0 0 0
444 1 13.05455558416295 17.586452754890622 -1.7763568394002505e-15 0 0 0
446 1 15.230314848190107 18.842627951668522 8.881784197001252e-16 0 0 0
592 1 14.505061760181055 17.586452754890622 4.102651012861482 0 0 0
611 1 14.505061760181055 20.098803148446425 4.10265101286148 0 0 0
612 1 15.95556793619916 20.098803148446425 2.051325506430743 0 0 0
613 1 16.680821024208214 18.842627951668522 4.102651012861481 0 0 0
615 1 15.955567936199161 17.586452754890622 2.0513255064307403 0 0 0
616 1 17.406074112217265 17.586452754890622 1.7763568394002505e-15 0 0 0
618 1 18.131327200226316 18.842627951668522 2.051325506430742 0 0 0
627 1 17.406074112217265 20.098803148446425 1.7763568394002505e-15 0 0 0
628 1 19.581833376244425 18.842627951668522 1.7763568394002505e-15 0 0 0
781 1 18.85658028823537 20.098803148446425 4.102651012861484 0 0 0
784 1 18.85658028823537 17.586452754890622 4.1026510128614815 0 0 0
785 1 20.307086464253477 17.586452754890622 2.051325506430743 0 0 0
787 1 21.032339552262528 18.842627951668522 4.1026510128614815 0 0 0