LAMMPS data file via write_data, version 30 Jul 2021, timestep = 0

4000 atoms
1 atom types

0 35.56 xlo xhi
0 35.56 ylo yhi
0 35.56 zlo zhi

Masses

1 1575.736

Atoms # atomic

1 1 33.782000000000004 0 1.778 0 0 0
2 1 33.782000000000004 1.778 0 0 0 0
3 1 33.782000000000004 0 5.334 0 0 0
4 1 33.782000000000004 1.778 3.556 0 0 0
5 1 33.782000000000004 0 8.89 0 0 0
6 1 33.782000000000004 1.778 7.112 0 0 0
7 1 33.782000000000004 0 12.446 0 0 0
8 1 33.782000000000004 1.778 10.668 0 0 0
9 1 33.782000000000004 0 16.002 0 0 0
10 1 33.782000000000004 1.778 14.224 0 0 0
11 1 33.782000000000004 0 19.558 0 0 0
12 1 33.782000000000004 1.778 17.78 0 0 0
13 1 33.782000000000004 0 23.114 0 0 0
14 1 33.782000000000004 1.778 21.336 0 0 0
15 1 33.782000000000004 0 26.67 0 0 0
16 1 33.782000000000004 1.778 24.892 0 0 0
17 1 33.782000000000004 0 30.226 0 0 0
18 1 33.782000000000004 1.778 28.448 0 0 0
19 1 33.782000000000004 0 33.782000000000004 0 0 0
20 1 33.782000000000004 1.778 32.004 0 0 0
21 1 33.782000000000004 3.556 1.778 0 0 0
22 1 33.782000000000004 5.334 0 0 0 0
23 1 33.782000000000004 3.556 5.334 0 0 0
24 1 33.782000000000004 5.334 3.556 0 0 0
25 1 33.782000000000004 3.556 8.89 0 0 0
26 1 33.782000000000004 5.334 7.112 0 0 0
27 1 33.782000000000004 3.556 12.446 0 0 0
28 1 33.782000000000004 5.334 10.668 0 0 0
29 1 33.782000000000004 3.556 16.002 0 0 0
30 1 33.782000000000004 5.334 14.224 0 0 0
31 1 33.782000000000004 3.556 19.558 0 0 0
32 1 33.782000000000004 5.334 17.78 0 0 0
33 1 33.782000000000004 3.556 23.114 0 0 0
34 1 33.782000000000004 5.334 21.336 0 0 0
35 1 33.782000000000004 3.556 26.67 0 0 0
36 1 33.782000000000004 5.334 24.892 0 0 0
37 1 33.782000000000004 3.556 30.226 0 0 0
38 1 33.782000000000004 5.334 28.448 0 0 0
39 1 33.782000000000004 3.556 33.782000000000004 0 0 0
40 1 33.782000000000004 5.334 32.004 0 0 0
41 1 33.782000000000004 7.112 1.778 0 0 0
42 1 33.782000000000004 8.89 0 0 0 0
43 1 33.782000000000004 7.112 5.334 0 0 0
44 1 33.782000000000004 8.89 3.556 0 0 0
45 1 33.782000000000004 7.112 8.89 0 0 0
46 1 33.782000000000004 8.89 7.112 0 0 0
47 1 33.782000000000004 7.112 12.446 0 0 0
48 1 33.782000000000004 8.89 10.668 0 0 0
49 1 33.782000000000004 7.112 16.002 0 0 0
50 1 33.782000000000004 8.89 14.224 0 0 0
51 1 33.782000000000004 7.112 19.558 0 0 0
52 1 33.782000000000004 8.89 17.78 0 0 0
53 1 33.782000000000004 7.112 23.114 0 0 0
54 1 33.782000000000004 8.89 21.336 0 0 0
55 1 33.782000000000004 7.112 26.67 0 0 0
56 1 33.782000000000004 8.89 24.892 0 0 0
57 1 33.782000000000004 7.112 30.226 0 0 0
58 1 33.782000000000004 8.89 28.448 0 0 0
59 1 33.782000000000004 7.112 33.782000000000004 0 0 0
60 1 33.782000000000004 8.89 32.004 0 0 0
61 1 33.782000000000004 10.668 1.778 0 0 0
62 1 33.782000000000004 12.446 0 0 0 0
63 1 33.782000000000004 10.668 5.334 0 0 0
64 1 33.782000000000004 12.446 3.556 0 0 0
65 1 33.782000000000004 10.668 8.89 0 0 0
66 1 33.782000000000004 12.446 7.112 0 0 0
67 1 33.782000000000004 10.668 12.446 0 0 0
68 1 33.782000000000004 12.446 10.668 0 0 0
69 1 33.782000000000004 10.668 16.002 0 0 0
70 1 33.782000000000004 12.446 14.224 0 0 0
71 1 33.782000000000004 10.668 19.558 0 0 0
72 1 33.782000000000004 12.446 17.78 0 0 0
73 1 33.782000000000004 10.668 23.114 0 0 0
74 1 33.782000000000004 12.446 21.336 0 0 0
75 1 33.782000000000004 10.668 26.67 0 0 0
76 1 33.782000000000004 12.446 24.892 0 0 0
77 1 33.782000000000004 10.668 30.226 0 0 0
78 1 33.782000000000004 12.446 28.448 0 0 0
79 1 33.782000000000004 10.668 33.782000000000004 0 0 0
80 1 33.782000000000004 12.446 32.004 0 0 0
81 1 33.782000000000004 14.224 1.778 0 0 0
82 1 33.782000000000004 16.002 0 0 0 0
83 1 33.782000000000004 14.224 5.334 0 0 0
84 1 33.782000000000004 16.002 3.556 0 0 0
85 1 33.782000000000004 14.224 8.89 0 0 0
86 1 33.782000000000004 16.002 7.112 0 0 0
87 1 33.782000000000004 14.224 12.446 0 0 0
88 1 33.782000000000004 16.002 10.668 0 0 0
89 1 33.782000000000004 14.224 16.002 0 0 0
90 1 33.782000000000004 16.002 14.224 0 0 0
91 1 33.782000000000004 14.224 19.558 0 0 0
92 1 33.782000000000004 16.002 17.78 0 0 0
93 1 33.782000000000004 14.224 23.114 0 0 0
94 1 33.782000000000004 16.002 21.336 0 0 0
95 1 33.782000000000004 14.224 26.67 0 0 0
96 1 33.782000000000004 16.002 24.892 0 0 0
97 1 33.782000000000004 14.224 30.226 0 0 0
98 1 33.782000000000004 16.002 28.448 0 0 0
99 1 33.782000000000004 14.224 33.782000000000004 0 0 0
100 1 33.782000000000004 16.002 32.004 0 0 0
101 1 33.782000000000004 17.78 1.778 0 0 0
102 1 33.782000000000004 19.558 0 0 0 0
103 1 33.782000000000004 17.78 5.334 0 0 0
104 1 33.782000000000004 19.558 3.556 0 0 0
105 1 33.782000000000004 17.78 8.89 0 0 0
106 1 33.782000000000004 19.558 7.112 0 0 0
107 1 33.782000000000004 17.78 12.446 0 0 0
108 1 33.782000000000004 19.558 10.668 0 0 0
109 1 33.782000000000004 17.78 16.002 0 0 0
110 1 33.782000000000004 19.558 14.224 0 0 0
111 1 33.782000000000004 17.78 19.558 0 0 0
112 1 33.782000000000004 19.558 17.78 0 0 0
113 1 33.782000000000004 17.78 23.114 0 0 0
114 1 33.782000000000004 19.558 21.336 0 0 0
115 1 33.782000000000004 17.78 26.67 0 0 0
116 1 33.782000000000004 19.558 24.892 0 0 0
117 1 33.782000000000004 17.78 30.226 0 0 0
118 1 33.782000000000004 19.558 28.448 0 0 0
119 1 33.782000000000004 17.78 33.782000000000004 0 0 0
120 1 33.782000000000004 19.558 32.004 0 0 0
121 1 33.782000000000004 21.336 1.778 0 0 0
122 1 33.782000000000004 23.114 0 0 0 0
123 1 33.782000000000004 21.336 5.334 0 0 0
124 1 33.782000000000004 23.114 3.556 0 0 0
125 1 33.782000000000004 21.336 8.89 0 0 0
126 1 33.782000000000004 23.114 7.112 0 0 0
127 1 33.782000000000004 21.336 12.446 0 0 0
128 1 33.782000000000004 23.114 10.668 0 0 0
129 1 33.782000000000004 21.336 16.002 0 0 0
130 1 33.782000000000004 23.114 14.224 0 0 0
131 1 33.782000000000004 21.336 19.558 0 0 0
132 1 33.782000000000004 23.114 17.78 0 0 0
133 1 33.782000000000004 21.336 23.114 0 0 0
134 1 33.782000000000004 23.114 21.336 0 0 0
135 1 33.782000000000004 21.336 26.67 0 0 0
136 1 33.782000000000004 23.114 24.892 0 0 0
137 1 33.782000000000004 21.336 30.226 0 0 0
138 1 33.782000000000004 23.114 28.448 0 0 0
139 1 33.782000000000004 21.336 33.782000000000004 0 0 0
140 1 33.782000000000004 23.114 32.004 0 0 0
141 1 33.782000000000004 24.892 1.778 0 0 0
142 1 33.782000000000004 26.67 0 0 0 0
143 1 33.782000000000004 24.892 5.334 0 0 0
144 1 33.782000000000004 26.67 3.556 0 0 0
145 1 33.782000000000004 24.892 8.89 0 0 0
146 1 33.782000000000004 26.67 7.112 0 0 0
147 1 33.782000000000004 24.892 12.446 0 0 0
148 1 33.782000000000004 26.67 10.668 0 0 0
149 1 33.782000000000004 24.892 16.002 0 0 0
150 1 33.782000000000004 26.67 14.224 0 0 0
151 1 33.782000000000004 24.892 19.558 0 0 0
152 1 33.782000000000004 26.67 17.78 0 0 0
153 1 33.782000000000004 24.892 23.114 0 0 0
154 1 33.782000000000004 26.67 21.336 0 0 0
155 1 33.782000000000004 24.892 26.67 0 0 0
156 1 33.782000000000004 26.67 24.892 0 0 0
157 1 33.782000000000004 24.892 30.226 0 0 0
158 1 33.782000000000004 26.67 28.448 0 0 0
159 1 33.782000000000004 24.892 33.782000000000004 0 0 0
160 1 33.782000000000004 26.67 32.004 0 0 0
161 1 33.782000000000004 28.448 1.778 0 0 0
162 1 33.782000000000004 30.226 0 0 0 0
163 1 33.782000000000004 28.448 5.334 0 0 0
164 1 33.782000000000004 30.226 3.556 0 0 0
165 1 33.782000000000004 28.448 8.89 0 0 0
166 1 33.782000000000004 30.226 7.112 0 0 0
167 1 33.782000000000004 28.448 12.446 0 0 0
168 1 33.782000000000004 30.226 10.668 0 0 0
169 1 33.782000000000004 28.448 16.002 0 0 0
170 1 33.782000000000004 30.226 14.224 0 0 0
171 1 33.782000000000004 28.448 19.558 0 0 0
172 1 33.782000000000004 30.226 17.78 0 0 0
173 1 33.782000000000004 28.448 23.114 0 0 0
174 1 33.782000000000004 30.226 21.336 0 0 0
175 1 33.782000000000004 28.448 26.67 0 0 0
176 1 33.782000000000004 30.226 24.892 0 0 0
177 1 33.782000000000004 28.448 30.226 0 0 0
178 1 33.782000000000004 30.226 28.448 0 0 0
179 1 33.782000000000004 28.448 33.782000000000004 0 0 0
180 1 33.782000000000004 30.226 32.004 0 0 0
181 1 33.782000000000004 32.004 1.778 0 0 0
182 1 33.782000000000004 33.782000000000004 0 0 0 0
183 1 33.782000000000004 32.004 5.334 0 0 0
184 1 33.782000000000004 33.782000000000004 3.556 0 0 0
185 1 33.782000000000004 32.004 8.89 0 0 0
186 1 33.782000000000004 33.782000000000004 7.112 0 0 0
187 1 33.782000000000004 32.004 12.446 0 0 0
188 1 33.782000000000004 33.782000000000004 10.668 0 0 0
189 1 33.782000000000004 32.004 16.002 0 0 0
190 1 33.782000000000004 33.782000000000004 14.224 0 0 0
191 1 33.782000000000004 32.004 19.558 0 0 0
192 1 33.782000000000004 33.782000000000004 17.78 0 0 0
193 1 33.782000000000004 32.004 23.114 0 0 0
194 1 33.782000000000004 33.782000000000004 21.336 0 0 0
195 1 33.782000000000004 32.004 26.67 0 0 0
196 1 33.782000000000004 33.782000000000004 24.892 0 0 0
197 1 33.782000000000004 32.004 30.226 0 0 0
198 1 33.782000000000004 33.782000000000004 28.448 0 0 0
199 1 33.782000000000004 32.004 33.782000000000004 0 0 0
200 1 33.782000000000004 33.782000000000004 32.004 0 0 0
201 1 32.004 0 0 0 0 0
202 1 32.004 1.778 1.778 0 0 0
203 1 30.226 0 1.778 0 0 0
204 1 30.226 1.778 0 0 0 0
205 1 32.004 0 3.556 0 0 0
206 1 32.004 1.778 5.334 0 0 0
207 1 30.226 0 5.334 0 0 0
208 1 30.226 1.778 3.556 0 0 0
209 1 32.004 0 7.112 0 0 0
210 1 32.004 1.778 8.89 0 0 0
211 1 30.226 0 8.89 0 0 0
212 1 30.226 1.778 7.112 0 0 0
213 1 32.004 0 10.668 0 0 0
214 1 32.004 1.778 12.446 0 0 0
215 1 30.226 0 12.446 0 0 0
216 1 30.226 1.778 10.668 0 0 0
217 1 32.004 0 14.224 0 0 0
218 1 32.004 1.778 16.002 0 0 0
219 1 30.226 0 16.002 0 0 0
220 1 30.226 1.778 14.224 0 0 0
221 1 32.004 0 17.78 0 0 0
222 1 32.004 1.778 19.558 0 0 0
223 1 30.226 0 19.558 0 0 0
224 1 30.226 1.778 17.78 0 0 0
225 1 32.004 0 21.336 0 0 0
226 1 32.004 1.778 23.114 0 0 0
227 1 30.226 0 23.114 0 0 0
228 1 30.226 1.778 21.336 0 0 0
229 1 32.004 0 24.892 0 0 0
230 1 32.004 1.778 26.67 0 0 0
231 1 30.226 0 26.67 0 0 0
232 1 30.226 1.778 24.892 0 0 0
233 1 32.004 0 28.448 0 0 0
234 1 32.004 1.778 30.226 0 0 0
235 1 30.226 0 30.226 0 0 0
236 1 30.226 1.778 28.448 0 0 0
237 1 32.004 0 32.004 0 0 0
238 1 32.004 1.778 33.782000000000004 0 0 0
239 1 30.226 0 33.782000000000004 0 0 0
240 1 30.226 1.778 32.004 0 0 0
241 1 32.004 3.556 0 0 0 0
242 1 32.004 5.334 1.778 0 0 0
243 1 30.226 3.556 1.778 0 0 0
244 1 30.226 5.334 0 0 0 0
245 1 32.004 3.556 3.556 0 0 0
246 1 32.004 5.334 5.334 0 0 0
247 1 30.226 3.556 5.334 0 0 0
248 1 30.226 5.334 3.556 0 0 0
249 1 32.004 3.556 7.112 0 0 0
250 1 32.004 5.334 8.89 0 0 0
251 1 30.226 3.556 8.89 0 0 0
252 1 30.226 5.334 7.112 0 0 0
253 1 32.004 3.556 10.668 0 0 0
254 1 32.004 5.334 12.446 0 0 0
255 1 30.226 3.556 12.446 0 0 0
256 1 30.226 5.334 10.668 0 0 0
257 1 32.004 3.556 14.224 0 0 0
258 1 32.004 5.334 16.002 0 0 0
259 1 30.226 3.556 16.002 0 0 0
260 1 30.226 5.334 14.224 0 0 0
261 1 32.004 3.556 17.78 0 0 0
262 1 32.004 5.334 19.558 0 0 0
263 1 30.226 3.556 19.558 0 0 0
264 1 30.226 5.334 17.78 0 0 0
265 1 32.004 3.556 21.336 0 0 0
266 1 32.004 5.334 23.114 0 0 0
267 1 30.226 3.556 23.114 0 0 0
268 1 30.226 5.334 21.336 0 0 0
269 1 32.004 3.556 24.892 0 0 0
270 1 32.004 5.334 26.67 0 0 0
271 1 30.226 3.556 26.67 0 0 0
272 1 30.226 5.334 24.892 0 0 0
273 1 32.004 3.556 28.448 0 0 0
274 1 32.004 5.334 30.226 0 0 0
275 1 30.226 3.556 30.226 0 0 0
276 1 30.226 5.334 28.448 0 0 0
277 1 32.004 3.556 32.004 0 0 0
278 1 32.004 5.334 33.782000000000004 0 0 0
279 1 30.226 3.556 33.782000000000004 0 0 0
280 1 30.226 5.334 32.004 0 0 0
281 1 32.004 7.112 0 0 0 0
282 1 32.004 8.89 1.778 0 0 0
283 1 30.226 7.112 1.778 0 0 0
284 1 30.226 8.89 0 0 0 0
285 1 32.004 7.112 3.556 0 0 0
286 1 32.004 8.89 5.334 0 0 0
287 1 30.226 7.112 5.334 0 0 0
288 1 30.226 8.89 3.556 0 0 0
289 1 32.004 7.112 7.112 0 0 0
290 1 32.004 8.89 8.89 0 0 0
291 1 30.226 7.112 8.89 0 0 0
292 1 30.226 8.89 7.112 0 0 0
293 1 32.004 7.112 10.668 0 0 0
294 1 32.004 8.89 12.446 0 0 0
295 1 30.226 7.112 12.446 0 0 0
296 1 30.226 8.89 10.668 0 0 0
297 1 32.004 7.112 14.224 0 0 0
298 1 32.004 8.89 16.002 0 0 0
299 1 30.226 7.112 16.002 0 0 0
300 1 30.226 8.89 14.224 0 0 0
301 1 32.004 7.112 17.78 0 0 0
302 1 32.004 8.89 19.558 0 0 0
303 1 30.226 7.112 19.558 0 0 0
304 1 30.226 8.89 17.78 0 0 0
305 1 32.004 7.112 21.336 0 0 0
306 1 32.004 8.89 23.114 0 0 0
307 1 30.226 7.112 23.114 0 0 0
308 1 30.226 8.89 21.336 0 0 0
309 1 32.004 7.112 24.892 0 0 0
310 1 32.004 8.89 26.67 0 0 0
311 1 30.226 7.112 26.67 0 0 0
312 1 30.226 8.89 24.892 0 0 0
313 1 32.004 7.112 28.448 0 0 0
314 1 32.004 8.89 30.226 0 0 0
315 1 30.226 7.112 30.226 0 0 0
316 1 30.226 8.89 28.448 0 0 0
317 1 32.004 7.112 32.004 0 0 0
318 1 32.004 8.89 33.782000000000004 0 0 0
319 1 30.226 7.112 33.782000000000004 0 0 0
320 1 30.226 8.89 32.004 0 0 0
321 1 32.004 10.668 0 0 0 0
322 1 32.004 12.446 1.778 0 0 0
323 1 30.226 10.668 1.778 0 0 0
324 1 30.226 12.446 0 0 0 0
325 1 32.004 10.668 3.556 0 0 0
326 1 32.004 12.446 5.334 0 0 0
327 1 30.226 10.668 5.334 0 0 0
328 1 30.226 12.446 3.556 0 0 0
329 1 32.004 10.668 7.112 0 0 0
330 1 32.004 12.446 8.89 0 0 0
331 1 30.226 10.668 8.89 0 0 0
332 1 30.226 12.446 7.112 0 0 0
333 1 32.004 10.668 10.668 0 0 0
334 1 32.004 12.446 12.446 0 0 0
335 1 30.226 10.668 12.446 0 0 0
336 1 30.226 12.446 10.668 0 0 0
337 1 32.004 10.668 14.224 0 0 0
338 1 32.004 12.446 16.002 0 0 0
339 1 30.226 10.668 16.002 0 0 0
340 1 30.226 12.446 14.224 0 0 0
341 1 32.004 10.668 17.78 0 0 0
342 1 32.004 12.446 19.558 0 0 0
343 1 30.226 10.668 19.558 0 0 0
344 1 30.226 12.446 17.78 0 0 0
345 1 32.004 10.668 21.336 0 0 0
346 1 32.004 12.446 23.114 0 0 0
347 1 30.226 10.668 23.114 0 0 0
348 1 30.226 12.446 21.336 0 0 0
349 1 32.004 10.668 24.892 0 0 0
350 1 32.004 12.446 26.67 0 0 0
351 1 30.226 10.668 26.67 0 0 0
352 1 30.226 12.446 24.892 0 0 0
353 1 32.004 10.668 28.448 0 0 0
354 1 32.004 12.446 30.226 0 0 0
355 1 30.226 10.668 30.226 0 0 0
356 1 30.226 12.446 28.448 0 0 0
357 1 32.004 10.668 32.004 0 0 0
358 1 32.004 12.446 33.782000000000004 0 0 0
359 1 30.226 10.668 33.782000000000004 0 0 0
360 1 30.226 12.446 32.004 0 0 0
361 1 32.004 14.224 0 0 0 0
362 1 32.004 16.002 1.778 0 0 0
363 1 30.226 14.224 1.778 0 0 0
364 1 30.226 16.002 0 0 0 0
365 1 32.004 14.224 3.556 0 0 0
366 1 32.004 16.002 5.334 0 0 0
367 1 30.226 14.224 5.334 0 0 0
368 1 30.226 16.002 3.556 0 0 0
369 1 32.004 14.224 7.112 0 0 0
370 1 32.004 16.002 8.89 0 0 0
371 1 30.226 14.224 8.89 0 0 0
372 1 30.226 16.002 7.112 0 0 0
373 1 32.004 14.224 10.668 0 0 0
374 1 32.004 16.002 12.446 0 0 0
375 1 30.226 14.224 12.446 0 0 0
376 1 30.226 16.002 10.668 0 0 0
377 1 32.004 14.224 14.224 0 0 0
378 1 32.004 16.002 16.002 0 0 0
379 1 30.226 14.224 16.002 0 0 0
380 1 30.226 16.002 14.224 0 0 0
381 1 32.004 14.224 17.78 0 0 0
382 1 32.004 16.002 19.558 0 0 0
383 1 30.226 14.224 19.558 0 0 0
384 1 30.226 16.002 17.78 0 0 0
385 1 32.004 14.224 21.336 0 0 0
386 1 32.004 16.002 23.114 0 0 0
387 1 30.226 14.224 23.114 0 0 0
388 1 30.226 16.002 21.336 0 0 0
389 1 32.004 14.224 24.892 0 0 0
390 1 32.004 16.002 26.67 0 0 0
391 1 30.226 14.224 26.67 0 0 0
392 1 30.226 16.002 24.892 0 0 0
393 1 32.004 14.224 28.448 0 0 0
394 1 32.004 16.002 30.226 0 0 0
395 1 30.226 14.224 30.226 0 0 0
396 1 30.226 16.002 28.448 0 0 0
397 1 32.004 14.224 32.004 0 0 0
398 1 32.004 16.002 33.782000000000004 0 0 0
399 1 30.226 14.224 33.782000000000004 0 0 0
400 1 30.226 16.002 32.004 0 0 0
401 1 32.004 17.78 0 0 0 0
402 1 32.004 19.558 1.778 0 0 0
403 1 30.226 17.78 1.778 0 0 0
404 1 30.226 19.558 0 0 0 0
405 1 32.004 17.78 3.556 0 0 0
406 1 32.004 19.558 5.334 0 0 0
407 1 30.226 17.78 5.334 0 0 0
408 1 30.226 19.558 3.556 0 0 0
409 1 32.004 17.78 7.112 0 0 0
410 1 32.004 19.558 8.89 0 0 0
411 1 30.226 17.78 8.89 0 0 0
412 1 30.226 19.558 7.112 0 0 0
413 1 32.004 17.78 10.668 0 0 0
414 1 32.004 19.558 12.446 0 0 0
415 1 30.226 17.78 12.446 0 0 0
416 1 30.226 19.558 10.668 0 0 0
417 1 32.004 17.78 14.224 0 0 0
418 1 32.004 19.558 16.002 0 0 0
419 1 30.226 17.78 16.002 0 0 0
420 1 30.226 19.558 14.224 0 0 0
421 1 32.004 17.78 17.78 0 0 0
422 1 32.004 19.558 19.558 0 0 0
423 1 30.226 17.78 19.558 0 0 0
424 1 30.226 19.558 17.78 0 0 0
425 1 32.004 17.78 21.336 0 0 0
426 1 32.004 19.558 23.114 0 0 0
427 1 30.226 17.78 23.114 0 0 0
428 1 30.226 19.558 21.336 0 0 0
429 1 32.004 17.78 24.892 0 0 0
430 1 32.004 19.558 26.67 0 0 0
431 1 30.226 17.78 26.67 0 0 0
432 1 30.226 19.558 24.892 0 0 0
433 1 32.004 17.78 28.448 0 0 0
434 1 32.004 19.558 30.226 0 0 0
435 1 30.226 17.78 30.226 0 0 0
436 1 30.226 19.558 28.448 0 0 0
437 1 32.004 17.78 32.004 0 0 0
438 1 32.004 19.558 33.782000000000004 0 0 0
439 1 30.226 17.78 33.782000000000004 0 0 0
440 1 30.226 19.558 32.004 0 0 0
441 1 32.004 21.336 0 0 0 0
442 1 32.004 23.114 1.778 0 0 0
443 1 30.226 21.336 1.778 0 0 0
444 1 30.226 23.114 0 0 0 0
445 1 32.004 21.336 3.556 0 0 0
446 1 32.004 23.114 5.334 0 0 0
447 1 30.226 21.336 5.334 0 0 0
448 1 30.226 23.114 3.556 0 0 0
449 1 32.004 21.336 7.112 0 0 0
450 1 32.004 23.114 8.89 0 0 0
451 1 30.226 21.336 8.89 0 0 0
452 1 30.226 23.114 7.112 0 0 0
453 1 32.004 21.336 10.668 0 0 0
454 1 32.004 23.114 12.446 0 0 0
455 1 30.226 21.336 12.446 0 0 0
456 1 30.226 23.114 10.668 0 0 0
457 1 32.004 21.336 14.224 0 0 0
458 1 32.004 23.114 16.002 0 0 0
459 1 30.226 21.336 16.002 0 0 0
460 1 30.226 23.114 14.224 0 0 0
461 1 32.004 21.336 17.78 0 0 0
462 1 32.004 23.114 19.558 0 0 0
463 1 30.226 21.336 19.558 0 0 0
464 1 30.226 23.114 17.78 0 0 0
465 1 32.004 21.336 21.336 0 0 0
466 1 32.004 23.114 23.114 0 0 0
467 1 30.226 21.336 23.114 0 0 0
468 1 30.226 23.114 21.336 0 0 0
469 1 32.004 21.336 24.892 0 0 0
470 1 32.004 23.114 26.67 0 0 0
471 1 30.226 21.336 26.67 0 0 0
472 1 30.226 23.114 24.892 0 0 0
473 1 32.004 21.336 28.448 0 0 0
474 1 32.004 23.114 30.226 0 0 0
475 1 30.226 21.336 30.226 0 0 0
476 1 30.226 23.114 28.448 0 0 0
477 1 32.004 21.336 32.004 0 0 0
478 1 32.004 23.114 33.782000000000004 0 0 0
479 1 30.226 21.336 33.782000000000004 0 0 0
480 1 30.226 23.114 32.004 0 0 0
481 1 32.004 24.892 0 0 0 0
482 1 32.004 26.67 1.778 0 0 0
483 1 30.226 24.892 1.778 0 0 0
484 1 30.226 26.67 0 0 0 0
485 1 32.004 24.892 3.556 0 0 0
486 1 32.004 26.67 5.334 0 0 0
487 1 30.226 24.892 5.334 0 0 0
488 1 30.226 26.67 3.556 0 0 0
489 1 32.004 24.892 7.112 0 0 0
490 1 32.004 26.67 8.89 0 0 0
491 1 30.226 24.892 8.89 0 0 0
492 1 30.226 26.67 7.112 0 0 0
493 1 32.004 24.892 10.668 0 0 0
494 1 32.004 26.67 12.446 0 0 0
495 1 30.226 24.892 12.446 0 0 0
496 1 30.226 26.67 10.668 0 0 0
497 1 32.004 24.892 14.224 0 0 0
498 1 32.004 26.67 16.002 0 0 0
499 1 30.226 24.892 16.002 0 0 0
500 1 30.226 26.67 14.224 0 0 0
501 1 32.004 24.892 17.78 0 0 0
502 1 32.004 26.67 19.558 0 0 0
503 1 30.226 24.892 19.558 0 0 0
504 1 30.226 26.67 17.78 0 0 0
505 1 32.004 24.892 21.336 0 0 0
506 1 32.004 26.67 23.114 0 0 0
507 1 30.226 24.892 23.114 0 0 0
508 1 30.226 26.67 21.336 0 0 0
509 1 32.004 24.892 24.892 0 0 0
510 1 32.004 26.67 26.67 0 0 0
511 1 30.226 24.892 26.67 0 0 0
512 1 30.226 26.67 24.892 0 0 0
513 1 32.004 24.892 28.448 0 0 0
514 1 32.004 26.67 30.226 0 0 0
515 1 30.226 24.892 30.226 0 0 0
516 1 30.226 26.67 28.448 0 0 0
517 1 32.004 24.892 32.004 0 0 0
518 1 32.004 26.67 33.782000000000004 0 0 0
519 1 30.226 24.892 33.782000000000004 0 0 0
520 1 30.226 26.67 32.004 0 0 0
521 1 32.004 28.448 0 0 0 0
522 1 32.004 30.226 1.778 0 0 0
523 1 30.226 28.448 1.778 0 0 0
524 1 30.226 30.226 0 0 0 0
525 1 32.004 28.448 3.556 0 0 0
526 1 32.004 30.226 5.334 0 0 0
527 1 30.226 28.448 5.334 0 0 0
528 1 30.226 30.226 3.556 0 0 0
529 1 32.004 28.448 7.112 0 0 0
530 1 32.004 30.226 8.89 0 0 0
531 1 30.226 28.448 8.89 0 0 0
532 1 30.226 30.226 7.112 0 0 0
533 1 32.004 28.448 10.668 0 0 0
534 1 32.004 30.226 12.446 0 0 0
535 1 30.226 28.448 12.446 0 0 0
536 1 30.226 30.226 10.668 0 0 0
537 1 32.004 28.448 14.224 0 0 0
538 1 32.004 30.226 16.002 0 0 0
539 1 30.226 28.448 16.002 0 0 0
540 1 30.226 30.226 14.224 0 0 0
541 1 32.004 28.448 17.78 0 0 0
542 1 32.004 30.226 19.558 0 0 0
543 1 30.226 28.448 19.558 0 0 0
544 1 30.226 30.226 17.78 0 0 0
545 1 32.004 28.448 21.336 0 0 0
546 1 32.004 30.226 23.114 0 0 0
547 1 30.226 28.448 23.114 0 0 0
548 1 30.226 30.226 21.336 0 0 0
549 1 32.004 28.448 24.892 0 0 0
550 1 32.004 30.226 26.67 0 0 0
551 1 30.226 28.448 26.67 0 0 0
552 1 30.226 30.226 24.892 0 0 0
553 1 32.004 28.448 28.448 0 0 0
554 1 32.004 30.226 30.226 0 0 0
555 1 30.226 28.448 30.226 0 0 0
556 1 30.226 30.226 28.448 0 0 0
557 1 32.004 28.448 32.004 0 0 0
558 1 32.004 30.226 33.782000000000004 0 0 0
559 1 30.226 28.448 33.782000000000004 0 0 0
560 1 30.226 30.226 32.004 0 0 0
561 1 32.004 32.004 0 0 0 0
562 1 32.004 33.782000000000004 1.778 0 0 0
563 1 30.226 32.004 1.778 0 0 0
564 1 30.226 33.782000000000004 0 0 0 0
565 1 32.004 32.004 3.556 0 0 0
566 1 32.004 33.782000000000004 5.334 0 0 0
567 1 30.226 32.004 5.334 0 0 0
568 1 30.226 33.782000000000004 3.556 0 0 0
569 1 32.004 32.004 7.112 0 0 0
570 1 32.004 33.782000000000004 8.89 0 0 0
571 1 30.226 32.004 8.89 0 0 0
572 1 30.226 33.782000000000004 7.112 0 0 0
573 1 32.004 32.004 10.668 0 0 0
574 1 32.004 33.782000000000004 12.446 0 0 0
575 1 30.226 32.004 12.446 0 0 0
576 1 30.226 33.782000000000004 10.668 0 0 0
577 1 32.004 32.004 14.224 0 0 0
578 1 32.004 33.782000000000004 16.002 0 0 0
579 1 30.226 32.004 16.002 0 0 0
580 1 30.226 33.782000000000004 14.224 0 0 0
581 1 32.004 32.004 17.78 0 0 0
582 1 32.004 33.782000000000004 19.558 0 0 0
583 1 30.226 32.004 19.558 0 0 0
584 1 30.226 33.782000000000004 17.78 0 0 0
585 1 32.004 32.004 21.336 0 0 0
586 1 32.004 33.782000000000004 23.114 0 0 0
587 1 30.226 32.004 23.114 0 0 0
588 1 30.226 33.782000000000004 21.336 0 0 0
589 1 32.004 32.004 24.892 0 0 0
590 1 32.004 33.782000000000004 26.67 0 0 0
591 1 30.226 32.004 26.67 0 0 0
592 1 30.226 33.782000000000004 24.892 0 0 0
593 1 32.004 32.004 28.448 0 0 0
594 1 32.004 33.782000000000004 30.226 0 0 0
595 1 30.226 32.004 30.226 0 0 0
596 1 30.226 33.782000000000004 28.448 0 0 0
597 1 32.004 32.004 32.004 0 0 0
598 1 32.004 33.782000000000004 33.782000000000004 0 0 0
599 1 30.226 32.004 33.782000000000004 0 0 0
600 1 30.226 33.782000000000004 32.004 0 0 0
601 1 28.448 0 0 0 0 0
602 1 28.448 1.778 1.778 0 0 0
603 1 26.67 0 1.778 0 0 0
604 1 26.67 1.778 0 0 0 0
605 1 28.448 0 3.556 0 0 0
606 1 28.448 1.778 5.334 0 0 0
607 1 26.67 0 5.334 0 0 0
608 1 26.67 1.778 3.556 0 0 0
609 1 28.448 0 7.112 0 0 0
610 1 28.448 1.778 8.89 0 0 0
611 1 26.67 0 8.89 0 0 0
612 1 26.67 1.778 7.112 0 0 0
613 1 28.448 0 10.668 0 0 0
614 1 28.448 1.778 12.446 0 0 0
615 1 26.67 0 12.446 0 0 0
616 1 26.67 1.778 10.668 0 0 0
617 1 28.448 0 14.224 0 0 0
618 1 28.448 1.778 16.002 0 0 0
619 1 26.67 0 16.002 0 0 0
620 1 26.67 1.778 14.224 0 0 0
621 1 28.448 0 17.78 0 0 0
622 1 28.448 1.778 19.558 0 0 0
623 1 26.67 0 19.558 0 0 0
624 1 26.67 1.778 17.78 0 0 0
625 1 28.448 0 21.336 0 0 0
626 1 28.448 1.778 23.114 0 0 0
627 1 26.67 0 23.114 0 0 0
628 1 26.67 1.778 21.336 0 0 0
629 1 28.448 0 24.892 0 0 0
630 1 28.448 1.778 26.67 0 0 0
631 1 26.67 0 26.67 0 0 0
632 1 26.67 1.778 24.892 0 0 0
633 1 28.448 0 28.448 0 0 0
634 1 28.448 1.778 30.226 0 0 0
635 1 26.67 0 30.226 0 0 0
636 1 26.67 1.778 28.448 0 0 0
637 1 28.448 0 32.004 0 0 0
638 1 28.448 1.778 33.782000000000004 0 0 0
639 1 26.67 0 33.782000000000004 0 0 0
640 1 26.67 1.778 32.004 0 0 0
641 1 28.448 3.556 0 0 0 0
642 1 28.448 5.334 1.778 0 0 0
643 1 26.67 3.556 1.778 0 0 0
644 1 26.67 5.334 0 0 0 0
645 1 28.448 3.556 3.556 0 0 0
646 1 28.448 5.334 5.334 0 0 0
647 1 26.67 3.556 5.334 0 0 0
648 1 26.67 5.334 3.556 0 0 0
649 1 28.448 3.556 7.112 0 0 0
650 1 28.448 5.334 8.89 0 0 0
651 1 26.67 3.556 8.89 0 0 0
652 1 26.67 5.334 7.112 0 0 0
653 1 28.448 3.556 10.668 0 0 0
654 1 28.448 5.334 12.446 0 0 0
655 1 26.67 3.556 12.446 0 0 0
656 1 26.67 5.334 10.668 0 0 0
657 1 28.448 3.556 14.224 0 0 0
658 1 28.448 5.334 16.002 0 0 0
659 1 26.67 3.556 16.002 0 0 0
660 1 26.67 5.334 14.224 0 0 0
661 1 28.448 3.556 17.78 0 0 0
662 1 28.448 5.334 19.558 0 0 0
663 1 26.67 3.556 19.558 0 0 0
664 1 26.67 5.334 17.78 0 0 0
665 1 28.448 3.556 21.336 0 0 0
666 1 28.448 5.334 23.114 0 0 0
667 1 26.67 3.556 23.114 0 0 0
668 1 26.67 5.334 21.336 0 0 0
669 1 28.448 3.556 24.892 0 0 0
670 1 28.448 5.334 26.67 0 0 0
671 1 26.67 3.556 26.67 0 0 0
672 1 26.67 5.334 24.892 0 0 0
673 1 28.448 3.556 28.448 0 0 0
674 1 28.448 5.334 30.226 0 0 0
675 1 26.67 3.556 30.226 0 0 0
676 1 26.67 5.334 28.448 0 0 0
677 1 28.448 3.556 32.004 0 0 0
678 1 28.448 5.334 33.782000000000004 0 0 0
679 1 26.67 3.556 33.782000000000004 0 0 0
680 1 26.67 5.334 32.004 0 0 0
681 1 28.448 7.112 0 0 0 0
682 1 28.448 8.89 1.778 0 0 0
683 1 26.67 7.112 1.778 0 0 0
684 1 26.67 8.89 0 0 0 0
685 1 28.448 7.112 3.556 0 0 0
686 1 28.448 8.89 5.334 0 0 0
687 1 26.67 7.112 5.334 0 0 0
688 1 26.67 8.89 3.556 0 0 0
689 1 28.448 7.112 7.112 0 0 0
690 1 28.448 8.89 8.89 0 0 0
691 1 26.67 7.112 8.89 0 0 0
692 1 26.67 8.89 7.112 0 0 0
693 1 28.448 7.112 10.668 0 0 0
694 1 28.448 8.89 12.446 0 0 0
695 1 26.67 7.112 12.446 0 0 0
696 1 26.67 8.89 10.668 0 0 0
697 1 28.448 7.112 14.224 0 0 0
698 1 28.448 8.89 16.002 0 0 0
699 1 26.67 7.112 16.002 0 0 0
700 1 26.67 8.89 14.224 0 0 0
701 1 28.448 7.112 17.78 0 0 0
702 1 28.448 8.89 19.558 0 0 0
703 1 26.67 7.112 19.558 0 0 0
704 1 26.67 8.89 17.78 0 0 0
705 1 28.448 7.112 21.336 0 0 0
706 1 28.448 8.89 23.114 0 0 0
707 1 26.67 7.112 23.114 0 0 0
708 1 26.67 8.89 21.336 0 0 0
709 1 28.448 7.112 24.892 0 0 0
710 1 28.448 8.89 26.67 0 0 0
711 1 26.67 7.112 26.67 0 0 0
712 1 26.67 8.89 24.892 0 0 0
713 1 28.448 7.112 28.448 0 0 0
714 1 28.448 8.89 30.226 0 0 0
715 1 26.67 7.112 30.226 0 0 0
716 1 26.67 8.89 28.448 0 0 0
717 1 28.448 7.112 32.004 0 0 0
718 1 28.448 8.89 33.782000000000004 0 0 0
719 1 26.67 7.112 33.782000000000004 0 0 0
720 1 26.67 8.89 32.004 0 0 0
721 1 28.448 10.668 0 0 0 0
722 1 28.448 12.446 1.778 0 0 0
723 1 26.67 10.668 1.778 0 0 0
724 1 26.67 12.446 0 0 0 0
725 1 28.448 10.668 3.556 0 0 0
726 1 28.448 12.446 5.334 0 0 0
727 1 26.67 10.668 5.334 0 0 0
728 1 26.67 12.446 3.556 0 0 0
729 1 28.448 10.668 7.112 0 0 0
730 1 28.448 12.446 8.89 0 0 0
731 1 26.67 10.668 8.89 0 0 0
732 1 26.67 12.446 7.112 0 0 0
733 1 28.448 10.668 10.668 0 0 0
734 1 28.448 12.446 12.446 0 0 0
735 1 26.67 10.668 12.446 0 0 0
736 1 26.67 12.446 10.668 0 0 0
737 1 28.448 10.668 14.224 0 0 0
738 1 28.448 12.446 16.002 0 0 0
739 1 26.67 10.668 16.002 0 0 0
740 1 26.67 12.446 14.224 0 0 0
741 1 28.448 10.668 17.78 0 0 0
742 1 28.448 12.446 19.558 0 0 0
743 1 26.67 10.668 19.558 0 0 0
744 1 26.67 12.446 17.78 0 0 0
745 1 28.448 10.668 21.336 0 0 0
746 1 28.448 12.446 23.114 0 0 0
747 1 26.67 10.668 23.114 0 0 0
748 1 26.67 12.446 21.336 0 0 0
749 1 28.448 10.668 24.892 0 0 0
750 1 28.448 12.446 26.67 0 0 0
751 1 26.67 10.668 26.67 0 0 0
752 1 26.67 12.446 24.892 0 0 0
753 1 28.448 10.668 28.448 0 0 0
754 1 28.448 12.446 30.226 0 0 0
755 1 26.67 10.668 30.226 0 0 0
756 1 26.67 12.446 28.448 0 0 0
757 1 28.448 10.668 32.004 0 0 0
758 1 28.448 12.446 33.782000000000004 0 0 0
759 1 26.67 10.668 33.782000000000004 0 0 0
760 1 26.67 12.446 32.004 0 0 0
761 1 28.448 14.224 0 0 0 0
762 1 28.448 16.002 1.778 0 0 0
763 1 26.67 14.224 1.778 0 0 0
764 1 26.67 16.002 0 0 0 0
765 1 28.448 14.224 3.556 0 0 0
766 1 28.448 16.002 5.334 0 0 0
767 1 26.67 14.224 5.334 0 0 0
768 1 26.67 16.002 3.556 0 0 0
769 1 28.448 14.224 7.112 0 0 0
770 1 28.448 16.002 8.89 0 0 0
771 1 26.67 14.224 8.89 0 0 0
772 1 26.67 16.002 7.112 0 0 0
773 1 28.448 14.224 10.668 0 0 0
774 1 28.448 16.002 12.446 0 0 0
775 1 26.67 14.224 12.446 0 0 0
776 1 26.67 16.002 10.668 0 0 0
777 1 28.448 14.224 14.224 0 0 0
778 1 28.448 16.002 16.002 0 0 0
779 1 26.67 14.224 16.002 0 0 0
780 1 26.67 16.002 14.224 0 0 0
781 1 28.448 14.224 17.78 0 0 0
782 1 28.448 16.002 19.558 0 0 0
783 1 26.67 14.224 19.558 0 0 0
784 1 26.67 16.002 17.78 0 0 0
785 1 28.448 14.224 21.336 0 0 0
786 1 28.448 16.002 23.114 0 0 0
787 1 26.67 14.224 23.114 0 0 0
788 1 26.67 16.002 21.336 0 0 0
789 1 28.448 14.224 24.892 0 0 0
790 1 28.448 16.002 26.67 0 0 0
791 1 26.67 14.224 26.67 0 0 0
792 1 26.67 16.002 24.892 0 0 0
793 1 28.448 14.224 28.448 0 0 0
794 1 28.448 16.002 30.226 0 0 0
795 1 26.67 14.224 30.226 0 0 0
796 1 26.67 16.002 28.448 0 0 0
797 1 28.448 14.224 32.004 0 0 0
798 1 28.448 16.002 33.782000000000004 0 0 0
799 1 26.67 14.224 33.782000000000004 0 0 0
800 1 26.67 16.002 32.004 0 0 0
801 1 28.448 17.78 0 0 0 0
802 1 28.448 19.558 1.778 0 0 0
803 1 26.67 17.78 1.778 0 0 0
804 1 26.67 19.558 0 0 0 0
805 1 28.448 17.78 3.556 0 0 0
806 1 28.448 19.558 5.334 0 0 0
807 1 26.67 17.78 5.334 0 0 0
808 1 26.67 19.558 3.556 0 0 0
809 1 28.448 17.78 7.112 0 0 0
810 1 28.448 19.558 8.89 0 0 0
811 1 26.67 17.78 8.89 0 0 0
812 1 26.67 19.558 7.112 0 0 0
813 1 28.448 17.78 10.668 0 0 0
814 1 28.448 19.558 12.446 0 0 0
815 1 26.67 17.78 12.446 0 0 0
816 1 26.67 19.558 10.668 0 0 0
817 1 28.448 17.78 14.224 0 0 0
818 1 28.448 19.558 16.002 0 0 0
819 1 26.67 17.78 16.002 0 0 0
820 1 26.67 19.558 14.224 0 0 0
821 1 28.448 17.78 17.78 0 0 0
822 1 28.448 19.558 19.558 0 0 0
823 1 26.67 17.78 19.558 0 0 0
824 1 26.67 19.558 17.78 0 0 0
825 1 28.448 17.78 21.336 0 0 0
826 1 28.448 19.558 23.114 0 0 0
827 1 26.67 17.78 23.114 0 0 0
828 1 26.67 19.558 21.336 0 0 0
829 1 28.448 17.78 24.892 0 0 0
830 1 28.448 19.558 26.67 0 0 0
831 1 26.67 17.78 26.67 0 0 0
832 1 26.67 19.558 24.892 0 0 0
833 1 28.448 17.78 28.448 0 0 0
834 1 28.448 19.558 30.226 0 0 0
835 1 26.67 17.78 30.226 0 0 0
836 1 26.67 19.558 28.448 0 0 0
837 1 28.448 17.78 32.004 0 0 0
838 1 28.448 19.558 33.782000000000004 0 0 0
839 1 26.67 17.78 33.782000000000004 0 0 0
840 1 26.67 19.558 32.004 0 0 0
841 1 28.448 21.336 0 0 0 0
842 1 28.448 23.114 1.778 0 0 0
843 1 26.67 21.336 1.778 0 0 0
844 1 26.67 23.114 0 0 0 0
845 1 28.448 21.336 3.556 0 0 0
846 1 28.448 23.114 5.334 0 0 0
847 1 26.67 21.336 5.334 0 0 0