LAMMPS data file via write_data version 30 Jul 2021 timestep = 0
4000 atoms
5 atom types
0 35.56 xlo xhi
0 35.56 ylo yhi
0 35.56 zlo zhi
0.0 0.0 0.0 xy xz yz

Masses

1 1.0
2 2.0
3 3.0
4 4.0
5 5.0

Atoms  # atomic

